% Model:              Bragg.mph
% Version:            COMSOL 6.2.0.290
% Date:               Dec 2 2025, 13:55
% Table:              Table 1 {tbl1} - Global Evaluation 1 {gev1}
% freq (THz)             PortName                 c_const/freq (nm)        Reflectance, port 1 (1)
159.88931093333332       1                        1874.9999999999998       0.013692513514517916
160.55551639555551       1                        1867.219917012448        0.01629487181545293
161.22172185777774       1                        1859.5041322314048       0.040669637697057795
161.88792731999996       1                        1851.8518518518517       0.08478910748561962
162.55413278222218       1                        1844.2622950819673       0.14329576084606968
163.22033824444443       1                        1836.7346938775506       0.20930602735806386
163.88654370666666       1                        1829.2682926829266       0.27633722683258605
164.55274916888888       1                        1821.8623481781374       0.3394835127134597
165.2189546311111        1                        1814.5161290322578       0.3956802682124108
165.8851600933333        1                        1807.2289156626505       0.44338257631907485
166.55136555555552       1                        1799.9999999999998       0.482044581967464
167.21757101777774       1                        1792.828685258964        0.5116339184081764
167.88377647999997       1                        1785.7142857142856       0.5322593126620716
168.5499819422222        1                        1778.6561264822135       0.5439011176122854
169.21618740444444       1                        1771.6535433070862       0.5462017995791643
169.88239286666666       1                        1764.705882352941        0.5382685217058361
170.54859832888886       1                        1757.8124999999998       0.518447430490978
171.21480379111108       1                        1750.9727626459141       0.48405626475963787
171.8810092533333        1                        1744.1860465116276       0.4311643476495075
172.54721471555553       1                        1737.4517374517372       0.3548836700079887
173.21342017777775       1                        1730.7692307692307       0.25184171553133927
173.87962563999997       1                        1724.1379310344828       0.1293689944602848
174.5458311022222        1                        1717.557251908397        0.026603211803753066
175.21203656444445       1                        1711.0266159695814       0.024742157322486493
175.87824202666664       1                        1704.5454545454543       0.17179572939960128
176.54444748888886       1                        1698.1132075471696       0.39438235656473564
177.2106529511111        1                        1691.7293233082705       0.5915004089227578
177.8768584133333        1                        1685.3932584269662       0.7299549000086744
178.54306387555553       1                        1679.1044776119402       0.8193682385496247
179.20926933777776       1                        1672.8624535315985       0.8762536222303607
179.87547479999998       1                        1666.6666666666665       0.9129371725075027
180.54168026222217       1                        1660.5166051660517       0.9371574584117136
181.20788572444442       1                        1654.411764705882        0.9535676165438116
181.87409118666665       1                        1648.351648351648        0.9649679701808253
182.54029664888887       1                        1642.3357664233574       0.9730732158872759
183.2065021111111        1                        1636.3636363636363       0.9789577419587183
183.87270757333332       1                        1630.4347826086955       0.9833112461739377
184.53891303555554       1                        1624.5487364620938       0.9865870261123186
185.20511849777773       1                        1618.705035971223        0.9890896668239969
185.87132395999996       1                        1612.9032258064515       0.9910280512779588
186.53752942222218       1                        1607.142857142857        0.9925481390548344
187.20373488444443       1                        1601.4234875444838       0.993753684152722
187.86994034666665       1                        1595.7446808510635       0.9947196045126658
188.53614580888888       1                        1590.1060070671376       0.9955007788554175
189.2023512711111        1                        1584.507042253521        0.9961379402918654
189.86855673333332       1                        1578.9473684210525       0.9966616915326105
190.53476219555552       1                        1573.4265734265732       0.9970952831300316
191.20096765777774       1                        1567.94425087108         0.9974565636496536
191.86717311999996       1                        1562.5                   0.9977593669488489
192.53337858222218       1                        1557.0934256055364       0.9980145113299033
193.19958404444444       1                        1551.7241379310342       0.9982305274929866
193.86578950666666       1                        1546.3917525773193       0.9984141946289842
194.53199496888888       1                        1541.0958904109586       0.998570939196358
195.19820043111108       1                        1535.8361774744026       0.9987051343526836
195.8644058933333        1                        1530.612244897959        0.9988203267704633
196.53061135555552       1                        1525.4237288135591       0.998919409874385
197.19681681777774       1                        1520.2702702702702       0.999004757178476
197.86302227999997       1                        1515.151515151515        0.9990783256631984
198.5292277422222        1                        1510.0671140939596       0.9991417364701397
199.19543320444444       1                        1505.0167224080265       0.9991963382935692
199.8616386666666        1                        1500                     0.9992432574757615
200.52784412888886       1                        1495.0166112956808       0.9992834378104333
201.19404959111108       1                        1490.0662251655626       0.9993176723302223
201.8602550533333        1                        1485.148514851485        0.9993466288037862
202.52646051555553       1                        1480.2631578947367       0.9993708702680119
203.19266597777775       1                        1475.4098360655737       0.9993908716135499
203.85887143999997       1                        1470.5882352941176       0.9994070330116476
204.5250769022222        1                        1465.7980456026057       0.9994196907945365
205.19128236444445       1                        1461.0389610389607       0.9994291262677157
205.8574878266666        1                        1456.3106796116504       0.9994355728241273
206.52369328888886       1                        1451.6129032258063       0.9994392216530907
207.1898987511111        1                        1446.9453376205786       0.9994402262694891
207.8561042133333        1                        1442.3076923076922       0.9994387060360225
208.52230967555553       1                        1437.699680511182        0.9994347488142813
209.18851513777776       1                        1433.12101910828         0.9994284128382066
209.85472059999995       1                        1428.5714285714284       0.9994197278808999
210.52092606222217       1                        1424.0506329113923       0.9994086957547648
211.18713152444442       1                        1419.5583596214508       0.9993952901633952
211.85333698666662       1                        1415.0943396226414       0.9993794558996261
212.51954244888887       1                        1410.6583072100311       0.9993611073598595
213.1857479111111        1                        1406.2499999999998       0.9993401263227716
213.85195337333332       1                        1401.8691588785045       0.9993163589087445
214.51815883555554       1                        1397.5155279503103       0.9992896116079237
215.18436429777773       1                        1393.188854489164        0.9992596462247895
215.85056975999996       1                        1388.8888888888887       0.9992261735415522
216.51677522222218       1                        1384.6153846153845       0.9991888454454848
217.18298068444443       1                        1380.368098159509        0.9991472451912561
217.84918614666663       1                        1376.1467889908256       0.9991008753809316
218.51539160888888       1                        1371.951219512195        0.9990491431209847
219.1815970711111        1                        1367.7811550151973       0.9989913416683788
219.84780253333332       1                        1363.6363636363635       0.9989266276672031
220.51400799555552       1                        1359.5166163141992       0.9988539928330936
221.18021345777774       1                        1355.421686746988        0.9987722285647052
221.84641891999996       1                        1351.3513513513512       0.9986798815237167
222.51262438222219       1                        1347.3053892215569       0.9985751975751764
223.17882984444444       1                        1343.283582089552        0.9984560506427761
223.84503530666663       1                        1339.2857142857142       0.9983198518585071
224.51124076888888       1                        1335.3115727002964       0.9981634327894083
225.17744623111108       1                        1331.360946745562        0.9979828942883135
225.8436516933333        1                        1327.433628318584        0.9977734093815507
226.50985715555552       1                        1323.5294117647056       0.9975289641610953
227.17606261777775       1                        1319.648093841642        0.9972420142826025
227.84226807999997       1                        1315.7894736842104       0.9969030254364291
228.5084735422222        1                        1311.9533527696792       0.9964998526247952
229.17467900444444       1                        1308.1395348837207       0.9960168929787954
229.8408844666666        1                        1304.3478260869565       0.9954339165930505
230.50708992888886       1                        1300.5780346820807       0.994724433670398
231.17329539111105       1                        1296.8299711815562       0.9938533846628569
231.8395008533333        1                        1293.1034482758619       0.992773827300812
232.50570631555553       1                        1289.3982808022922       0.9914221135813203
233.17191177777775       1                        1285.7142857142856       0.9897107546498113
233.83811723999997       1                        1282.051282051282        0.9875176803757757
234.50432270222217       1                        1278.4090909090908       0.9846697666807884
235.17052816444442       1                        1274.7875354107646       0.9809170591371061
235.83673362666661       1                        1271.186440677966        0.9758915679258636
236.50293908888887       1                        1267.6056338028168       0.969039913064834
237.16914455111106       1                        1264.0449438202247       0.9595107161245138
237.8353500133333        1                        1260.5042016806722       0.9459623231112948
238.50155547555553       1                        1256.9832402234636       0.9262292024806028
239.16776093777776       1                        1253.4818941504177       0.8967416503859927
239.83396639999995       1                        1250                     0.851548074312349
240.50017186222217       1                        1246.5373961218836       0.7808733047988552
241.16637732444443       1                        1243.0939226519336       0.6700026412891458
241.83258278666662       1                        1239.6694214876034       0.5030737183995523
242.49878824888887       1                        1236.263736263736        0.2850107942532133
243.16499371111107       1                        1232.876712328767        0.08375947471325937
243.83119917333332       1                        1229.5081967213114       0.006476056362112145
244.49740463555554       1                        1226.1580381471388       0.06786894627071745
245.16361009777773       1                        1222.8260869565215       0.18811530814709007
245.82981555999996       1                        1219.5121951219512       0.3037738742889583
246.49602102222218       1                        1216.216216216216        0.39412439365472207
247.16222648444443       1                        1212.9380053908353       0.4588026561008511
247.82843194666663       1                        1209.6774193548385       0.5024904555374227
248.49463740888888       1                        1206.4343163538872       0.5297365003157974
249.16084287111104       1                        1203.2085561497327       0.5438699668967124
249.8270483333333        1                        1199.9999999999998       0.5470571192333377
250.49325379555552       1                        1196.8085106382978       0.5405677073873572
251.15945925777774       1                        1193.6339522546418       0.5250231912286633
251.82566471999996       1                        1190.4761904761904       0.5006026747245826
252.4918701822222        1                        1187.335092348285        0.4672362418120768
253.15807564444444       1                        1184.2105263157894       0.42483004498208493
253.82428110666663       1                        1181.1023622047244       0.3735702591453965
254.49048656888888       1                        1178.0104712041882       0.3143397365299502
255.15669203111105       1                        1174.9347258485639       0.24923001539754536
255.8228974933333        1                        1171.8749999999998       0.18201578774406196
256.48910295555555       1                        1168.8311688311687       0.11829038788484889
257.15530841777775       1                        1165.80310880829         0.0648634277390733
257.82151387999994       1                        1162.7906976744184       0.02823707361884956
258.4877193422222        1                        1159.7938144329896       0.012606087010650155
259.15392480444444       1                        1156.8123393316193       0.01843249198532063
259.82013026666664       1                        1153.8461538461538       0.04247904263336698
260.4863357288889        1                        1150.8951406649614       0.07920540995139724
261.1525411911111        1                        1147.9591836734694       0.12259059248090831
261.81874665333333       1                        1145.038167938931        0.1674780143742428
262.48495211555553       1                        1142.1319796954313       0.21013824838773432
263.1511575777777        1                        1139.2405063291137       0.24823484408198987
263.81736304             1                        1136.3636363636363       0.2805117874021477
264.48356850222217       1                        1133.5012594458437       0.3064348758850521
265.1497739644444        1                        1130.6532663316582       0.32589547004807934
265.8159794266666        1                        1127.8195488721803       0.33900283024337813
266.48218488888887       1                        1124.9999999999998       0.3459546341357367
267.14839035111106       1                        1122.1945137157106       0.34696597829326736
267.8145958133333        1                        1119.4029850746267       0.34223953199249757
268.4808012755555        1                        1116.6253101736972       0.3319650414879836
269.14700673777776       1                        1113.8613861386136       0.31634154551609944
269.81321219999995       1                        1111.111111111111        0.295619255289955
270.4794176622222        1                        1108.3743842364531       0.2701595889995473
271.14562312444446       1                        1105.6511056511054       0.2405108161891245
271.8118285866666        1                        1102.941176470588        0.2074924777654306
272.47803404888884       1                        1100.244498777506        0.17227379859363443
273.14423951111104       1                        1097.560975609756        0.1364207171106973
273.8104449733333        1                        1094.8905109489049       0.10187698489424321
274.47665043555554       1                        1092.2330097087377       0.07084502790945055
275.14285589777774       1                        1089.5883777239708       0.04555136983700118
275.80906136             1                        1086.9565217391303       0.02792254106868189
276.4752668222222        1                        1084.3373493975903       0.019247606277651857
277.1414722844444        1                        1081.730769230769        0.01993322670990083
277.8076777466666        1                        1079.136690647482        0.029438724276557894
278.4738832088889        1                        1076.5550239234449       0.04641273512230276
279.1400886711111        1                        1073.9856801909307       0.06897586324811358
279.8062941333333        1                        1071.4285714285713       0.0950497950716129
280.4724995955555        1                        1068.8836104513064       0.12264045082870725
281.13870505777777       1                        1066.3507109004738       0.15002412238086085
281.80491052             1                        1063.8297872340422       0.1758308462223937
282.47111598222216       1                        1061.3207547169811       0.19904813883319483
283.13732144444435       1                        1058.8235294117646       0.21897720892322953
283.8035269066666        1                        1056.338028169014        0.23516958997123805
284.46973236888886       1                        1053.8641686182668       0.2473630550078147
285.13593783111105       1                        1051.4018691588785       0.2554270435721305
285.8021432933333        1                        1048.9510489510487       0.25932174263136076
286.4683487555555        1                        1046.5116279069766       0.25907149630928983
287.13455421777775       1                        1044.0835266821346       0.25475165676480593
287.80075968             1                        1041.6666666666665       0.2464875143964365
288.4669651422222        1                        1039.2609699769052       0.23446389620882574
289.1331706044444        1                        1036.8663594470047       0.21894390891377868
289.79937606666664       1                        1034.4827586206895       0.20029477042434027
290.4655815288889        1                        1032.110091743119        0.17901747125667689
291.1317869911111        1                        1029.7482837528603       0.15577504938905848
291.7979924533333        1                        1027.3972602739725       0.13141177030951037
292.4641979155555        1                        1025.0569476082005       0.10695321406572979
293.1304033777777        1                        1022.7272727272726       0.08357655662153754
293.79660884             1                        1020.4081632653059       0.06254298651735889
294.46281430222217       1                        1018.0995475113122       0.04509159520490385
295.12901976444437       1                        1015.8013544018058       0.03230579005524543
295.7952252266666        1                        1013.5135135135134       0.02497591643343485
296.46143068888887       1                        1011.2359550561796       0.023489473648510256
297.12763615111106       1                        1008.9686098654709       0.027777623630133502
297.7938416133333        1                        1006.711409395973        0.03733259076676412
298.4600470755555        1                        1004.4642857142857       0.05129026710665926
299.12625253777776       1                        1002.2271714922048       0.06855478318709812
299.792458               1                        999.9999999999998        0.08793413066237937
